; This file was generated using the following command:
; /local/lborge01/miniconda3/envs/general_env/bin/martinize2 -v -f ./ghrelin_nomod.pdb -x cg.pdb -o topol.top -mutate HSD:HIS -maxwarn 2 -dssp -ff martini3007 -ff-dir /local/lborge01/m3_proteinmodel/models/Alpha_0.3.3/force_fields -map-dir /local/lborge01/m3_proteinmodel/models/Alpha_0.3.3/mappings -eb CA
; martinize with vermouth 0.15.0
; The following sequence of secondary structure 
; was used for the full system:
; CCCCCCTTHHHHHTC

; Please cite the following papers:
; Kroon, P C; Grunewald, F; Barnoud, J; van Tilburg, M; Souza, P C; Wassenaar, T A; Marrink, S J;  elife 2024; 10.7554/elife.90627.2
; McGibbon, R T; Beauchamp, K A; Harrigan, M P; Klein, C; Swails, J M; Hernández, C X; Schwantes, C R; Wang, L; Lane, T J; Pande, V S;  Biophysical Journal 2015; 10.1016/j.bpj.2015.08.015

[ moleculetype ]
molecule_1 1

[ atoms ]
 1 SQ4p  1 GLY N    1  1.0 36.0
 2 U     1 GLY CA   2  0.0 46.0
 3 TP1   1 GLY C    3    0  0.0
 4 U     1 GLY O    4    0 32.0
 5 U     2 SER N    5  0.1  0.0
 6 U     2 SER CA   6  0.0 46.0
 7 SP1   2 SER C    7  0.0  0.0
 8 U     2 SER O    8 -0.1 32.0
 9 TP1   2 SER SC1  9  0.0     
10 U     3 SER N   10  0.1  0.0
11 U     3 SER CA  11  0.0 46.0
12 SP1   3 SER C   12  0.0  0.0
13 U     3 SER O   13 -0.1 32.0
14 SN4a  3 SER SC1 14  0.0  ;; modified due to n-OCT mod (TP1 to SN4a).  
15 U     4 PHE N   15  0.1  0.0
16 U     4 PHE CA  16  0.0 46.0
17 SP1   4 PHE C   17  0.0  0.0
18 U     4 PHE O   18 -0.1 32.0
19 SC4   4 PHE SC1 19  0.0     
20 TC5   4 PHE SC2 20  0.0     
21 TC5   4 PHE SC3 21  0.0     
22 U     5 LEU N   22  0.1  0.0
23 U     5 LEU CA  23  0.0 46.0
24 SP1   5 LEU C   24  0.0  0.0
25 U     5 LEU O   25 -0.1 32.0
26 C1r   5 LEU SC1 26  0.0     
27 U     6 SER N   27  0.1  0.0
28 U     6 SER CA  28  0.0 46.0
29 SP1   6 SER C   29  0.0  0.0
30 U     6 SER O   30 -0.1 32.0
31 TP1   6 SER SC1 31  0.0     
32 Up    7 PRO N   32  0.1  0.0
33 U     7 PRO CA  33  0.0 46.0
34 SP1r  7 PRO C   34  0.0  0.0
35 U     7 PRO O   35 -0.1 32.0
36 SC3   7 PRO SC1 36  0.0     
37 U     8 GLU N   37  0.1  0.0
38 U     8 GLU CA  38  0.0 46.0
39 SP1   8 GLU C   39  0.0  0.0
40 U     8 GLU O   40 -0.1 32.0
41 Q5n   8 GLU SC1 41 -1.0     
42 U     9 HIS N   42  0.1  0.0
43 U     9 HIS CA  43  0.0 46.0
44 SP1   9 HIS C   44  0.0  0.0
45 U     9 HIS O   45 -0.1 32.0
46 TC4   9 HIS SC1 46  0.0     
47 TN6d  9 HIS SC2 47  0.0     
48 TN6a  9 HIS SC3 48  0.0     
49 U    10 GLN N   49  0.1  0.0
50 U    10 GLN CA  50  0.0 46.0
51 SP1  10 GLN C   51  0.0  0.0
52 U    10 GLN O   52 -0.1 32.0
53 P5   10 GLN SC1 53  0.0     
54 U    11 ARG N   54  0.1  0.0
55 U    11 ARG CA  55  0.0 46.0
56 SP1  11 ARG C   56  0.0  0.0
57 U    11 ARG O   57 -0.1 32.0
58 TC3  11 ARG SC1 58  0.0     
59 TP1q 11 ARG SC2 59  0.3     
60 TP1q 11 ARG SC3 60 0.35     
61 TP1q 11 ARG SC4 61 0.35     
62 U    12 VAL N   62  0.1  0.0
63 U    12 VAL CA  63  0.0 46.0
64 SP1  12 VAL C   64  0.0  0.0
65 U    12 VAL O   65 -0.1 32.0
66 SC2  12 VAL SC1 66  0.0     
67 U    13 GLN N   67  0.1  0.0
68 U    13 GLN CA  68  0.0 46.0
69 SP1  13 GLN C   69  0.0  0.0
70 U    13 GLN O   70 -0.1 32.0
71 P5   13 GLN SC1 71  0.0     
72 U    14 GLN N   72  0.1  0.0
73 U    14 GLN CA  73  0.0 46.0
74 SP1  14 GLN C   74  0.0  0.0
75 U    14 GLN O   75 -0.1 32.0
76 P5   14 GLN SC1 76  0.0     
77 U    15 ARG N   77    0  0.0
78 U    15 ARG CA  78  0.0 46.0
79 SQ5n 15 ARG C   79 -1.0 36.0
80 U    15 ARG O   80    0 36.0
81 TC3  15 ARG SC1 81  0.0     
82 TP1q 15 ARG SC2 82  0.3     
83 TP1q 15 ARG SC3 83 0.35     
84 TP1q 15 ARG SC4 84 0.35     
85 SC1  16 OCT SC2 85 0.0   ;; added due to n-OCT mod. 
86 C1   16 OCT SC3 86 0.0   ;; added due to n-OCT mod.
[ bonds ]
; ARG
55 58 1 0.20 10000
58 59 1 0.250 10000
78 81 1 0.20 10000
81 82 1 0.250 10000

; CA  — -O 
 4  6 1 0.282 20000
 8 11 1 0.282 20000
13 16 1 0.282 20000
18 23 1 0.282 20000
25 28 1 0.282 20000
30 33 1 0.282 20000
35 38 1 0.282 20000
40 43 1 0.282 20000
45 50 1 0.282 20000
52 55 1 0.282 20000
57 63 1 0.282 20000
65 68 1 0.282 20000
70 73 1 0.282 20000
75 78 1 0.282 20000

; GLN
50 53 1 0.345 8000
68 71 1 0.345 8000
73 76 1 0.345 8000

; GLU
38 41 1 0.335 10000

; HIS
43 46 1 0.198 10000

; LEU
23 26 1 0.270 10000

; PHE
16 19 1 0.245 10000

; PRO
33 36 1 0.19 15000

; SER
 6  9 1 0.185 10000
;; 11 14 1 0.185 10000 ;; commented due to n-OCT mod.
28 31 1 0.185 10000

; VAL
63 66 1 0.21 10000

#ifdef FLEXIBLE
; C-TER
78 79 1 0.15 30000
79 80 1 0.13 30000
#endif

#ifdef FLEXIBLE
; CA  — +CA 
 2  6 1 0.384 10000
 6 11 1 0.384 10000
11 16 1 0.384 10000
16 23 1 0.384 10000
23 28 1 0.384 10000
28 33 1 0.384 10000
33 38 1 0.384 10000
38 43 1 0.384 10000
43 50 1 0.384 10000
50 55 1 0.384 10000
55 63 1 0.384 10000
63 68 1 0.384 10000
68 73 1 0.384 10000
73 78 1 0.384 10000
#endif

#ifdef FLEXIBLE
; HIS
46 47 1 0.320 100000
46 48 1 0.300 100000
47 48 1 0.270 100000
#endif

#ifdef FLEXIBLE
; N-TER
 1  2 1 0.170 30000
#endif

#ifdef FLEXIBLE
; PHE
19 20 1 0.310 100000
19 21 1 0.310 100000
20 21 1 0.310 100000
#endif

[ constraints ]
; ARG
59 60 1 0.300
59 61 1 0.330
60 61 1 0.290
82 83 1 0.300
82 84 1 0.330
83 84 1 0.290

; CA  — O 
 2  4 1 0.241
 6  8 1 0.241
11 13 1 0.241
16 18 1 0.241
23 25 1 0.241
28 30 1 0.241
33 35 1 0.241
38 40 1 0.241
43 45 1 0.241
50 52 1 0.241
55 57 1 0.241
63 65 1 0.241
68 70 1 0.241
73 75 1 0.241
78 80 1 0.241

#ifndef FLEXIBLE
; C-TER
78 79 1 0.15
80 79 1 0.13
#endif

#ifndef FLEXIBLE
; CA  — +CA 
 2  6 1 0.384
 6 11 1 0.384
11 16 1 0.384
16 23 1 0.384
23 28 1 0.384
28 33 1 0.384
33 38 1 0.384
38 43 1 0.384
43 50 1 0.384
50 55 1 0.384
55 63 1 0.384
63 68 1 0.384
68 73 1 0.384
73 78 1 0.384
#endif

#ifndef FLEXIBLE
; HIS
46 47 1 0.320
46 48 1 0.300
47 48 1 0.270
#endif

#ifndef FLEXIBLE
; N-TER
 2  1 1 0.170
#endif

#ifndef FLEXIBLE
; PHE
19 20 1 0.310
19 21 1 0.310
20 21 1 0.310
#endif

[ angles ]
; ARG
54 55 58 10 110.0 60
57 55 58 10 110.0 45
55 58 59 2 170.0 75
58 59 60 1 125.0 20
58 59 61 1 140.0 20
77 78 81 10 110.0 60
80 78 81 10 110.0 45
78 81 82 2 170.0 75
81 82 83 1 125.0 20
81 82 84 1 140.0 20

; GLN
49 50 53 10 105.0 60
52 50 53 10 115.0 15
67 68 71 10 105.0 60
70 68 71 10 115.0 15
72 73 76 10 105.0 60
75 73 76 10 115.0 15

; GLU
37 38 41 10 100.0 40
40 38 41 10 120.0 20

; HIS
42 43 46 10 110.0 60
45 43 46 10 110.0 45
43 46 47 10 130.0 30
43 46 48 2 130.0 30

; LEU
22 23 26 10 103.0 100
25 23 26 10 120.0 20

; N  — CA  — C 
 1  2  3 10 110.5 400
 5  6  7 10 110.5 400
10 11 12 10 110.5 400
15 16 17 10 110.5 400
22 23 24 10 110.5 400
27 28 29 10 110.5 400
32 33 34 10 110.5 400
37 38 39 10 110.5 400
42 43 44 10 110.5 400
49 50 51 10 110.5 400
54 55 56 10 110.5 400
62 63 64 10 110.5 400
67 68 69 10 110.5 400
72 73 74 10 110.5 400
77 78 79 10 110.5 400

; PHE
15 16 19 10 115.0 40
18 16 19 10 100.0 20
16 19 20 10 130.0 35
16 19 21 10 130.0 35
16 20 21 1 70.0 40

; PRO
32 33 36 1 65.0 300
35 33 36 10 110.0 20

; SER
 5  6  9 10 110.0 60
 8  6  9 10 115.0 30
10 11 14 10 110.0 60
13 11 14 10 115.0 30
27 28 31 10 110.0 60
30 28 31 10 115.0 30

; VAL
62 63 66 10 105.0 70
65 63 66 10 112.5 40

[ exclusions ]
 1  3 
 4  1  3 
 3  5  8 
 3  7 
 4  5 
 5  7  9 
 8  5  7  9 
 7  9 
 7 10 13 
 7 12 
 8 10 
10 12 14 
13 10 12 14 
12 14 
12 15 18 
12 17 
13 15 
15 17 19 20 21 
18 15 17 19 20 21 
17 19 
17 22 25 
17 24 
18 22 
22 24 26 
25 22 24 26 
24 26 
24 27 30 
24 29 
25 27 
27 29 31 
30 27 29 31 
29 31 
29 32 35 
29 34 
30 32 
32 34 36 
35 32 34 36 
34 36 
34 37 40 
34 39 
35 37 
37 39 41 
40 37 39 41 
39 41 
39 42 45 
39 44 
40 42 
42 44 46 
45 42 44 46 47 48 
44 46 
44 49 52 
44 51 
45 49 
49 51 53 
52 49 51 53 
51 53 
51 54 57 
51 56 
52 54 
54 56 58 60 61 
57 54 56 58 60 61 
56 58 
56 62 65 
56 64 
57 62 
62 64 66 
65 62 64 66 
64 66 
64 67 70 
64 69 
65 67 
67 69 71 
70 67 69 71 
69 71 
69 72 75 
69 74 
70 72 
72 74 76 
75 72 74 76 
74 76 
74 77 80 
74 79 
75 77 
77 79 81 83 84 
80 77 79 81 83 84 
79 81 

[ dihedrals ]
; ARG
58 55 57 56 9 10.0 4 2
58 55 57 56 9 10.0 5 1
58 55 57 56 9 100.0 1 1
81 78 80 79 9 10.0 4 2
81 78 80 79 9 10.0 5 1
81 78 80 79 9 100.0 1 1

; GLN
53 50 52 51 9 10.0 4 2
53 50 52 51 9 10.0 5 1
53 50 52 51 9 100.0 1 1
71 68 70 69 9 10.0 4 2
71 68 70 69 9 10.0 5 1
71 68 70 69 9 100.0 1 1
76 73 75 74 9 10.0 4 2
76 73 75 74 9 10.0 5 1
76 73 75 74 9 100.0 1 1

; GLU
41 38 40 39 9 10.0 4 2
41 38 40 39 9 10.0 5 1
41 38 40 39 9 100.0 1 1

; HIS
45 43 46 47 9 -90 2.5 3
45 43 46 47 9 -100 2 1
46 43 45 44 9 10.0 4 2
46 43 45 44 9 10.0 5 1
46 43 45 44 9 100.0 1 1

; LEU
26 23 25 24 9 10.0 4 2
26 23 25 24 9 10.0 5 1
26 23 25 24 9 100.0 .5 1

; PHE
16 20 21 19 1 180.0 5 1
18 16 19 20 9 -120 2 3
18 16 19 20 9 -100 1 1
19 16 18 17 9 10.0 5 2
19 16 18 17 9 10.0 4 1
19 16 18 17 9 100.0 1.5 1

; PHI dihedrals (Alpha)
39 42 43 44 9 119.704 7.385 1
39 42 43 44 9 63.103 4.721 2
39 42 43 44 9 3.733 3.941 3
39 42 43 44 9 -58.943 3.648 4
44 49 50 51 9 119.704 7.385 1
44 49 50 51 9 63.103 4.721 2
44 49 50 51 9 3.733 3.941 3
44 49 50 51 9 -58.943 3.648 4
51 54 55 56 9 119.704 7.385 1
51 54 55 56 9 63.103 4.721 2
51 54 55 56 9 3.733 3.941 3
51 54 55 56 9 -58.943 3.648 4
56 62 63 64 9 119.704 7.385 1
56 62 63 64 9 63.103 4.721 2
56 62 63 64 9 3.733 3.941 3
56 62 63 64 9 -58.943 3.648 4
64 67 68 69 9 119.704 7.385 1
64 67 68 69 9 63.103 4.721 2
64 67 68 69 9 3.733 3.941 3
64 67 68 69 9 -58.943 3.648 4

; PHI dihedrals (Coil)
 3  5  6  7 9 89.389 6.799 1
 3  5  6  7 9 -38.946 5.020 2
 3  5  6  7 9 17.494 4.148 3
 3  5  6  7 9 10.268 1.055 4
 7 10 11 12 9 89.389 6.799 1
 7 10 11 12 9 -38.946 5.020 2
 7 10 11 12 9 17.494 4.148 3
 7 10 11 12 9 10.268 1.055 4
12 15 16 17 9 89.389 6.799 1
12 15 16 17 9 -38.946 5.020 2
12 15 16 17 9 17.494 4.148 3
12 15 16 17 9 10.268 1.055 4
17 22 23 24 9 89.389 6.799 1
17 22 23 24 9 -38.946 5.020 2
17 22 23 24 9 17.494 4.148 3
17 22 23 24 9 10.268 1.055 4
24 27 28 29 9 81.863 6.580 1
24 27 28 29 9 -43.082 4.558 2
24 27 28 29 9 -3.953 3.060 3
24 27 28 29 9 -19.825 1.990 4
74 77 78 79 9 89.389 6.799 1
74 77 78 79 9 -38.946 5.020 2
74 77 78 79 9 17.494 4.148 3
74 77 78 79 9 10.268 1.055 4

; PHI dihedrals (Turn)
29 32 33 34 9 109.170 5.493 1
29 32 33 34 9 -27.941 5.583 2
29 32 33 34 9 -5.051 3.878 3
29 32 33 34 9 30.435 1.922 4
34 37 38 39 9 109.170 5.493 1
34 37 38 39 9 -27.941 5.583 2
34 37 38 39 9 -5.051 3.878 3
34 37 38 39 9 30.435 1.922 4
69 72 73 74 9 109.170 5.493 1
69 72 73 74 9 -27.941 5.583 2
69 72 73 74 9 -5.051 3.878 3
69 72 73 74 9 30.435 1.922 4

; PRO
36 33 35 34 1 30.0 10 1

; PSI dihedrals (Alpha)
42 43 44 49 9 153.491 9.643 1
42 43 44 49 9 117.205 5.154 2
42 43 44 49 9 50.676 2.829 3
42 43 44 49 9 -55.032 2.359 5
49 50 51 54 9 153.491 9.643 1
49 50 51 54 9 117.205 5.154 2
49 50 51 54 9 50.676 2.829 3
49 50 51 54 9 -55.032 2.359 5
54 55 56 62 9 153.491 9.643 1
54 55 56 62 9 117.205 5.154 2
54 55 56 62 9 50.676 2.829 3
54 55 56 62 9 -55.032 2.359 5
62 63 64 67 9 153.491 9.643 1
62 63 64 67 9 117.205 5.154 2
62 63 64 67 9 50.676 2.829 3
62 63 64 67 9 -55.032 2.359 5
67 68 69 72 9 153.491 9.643 1
67 68 69 72 9 117.205 5.154 2
67 68 69 72 9 50.676 2.829 3
67 68 69 72 9 -55.032 2.359 5

; PSI dihedrals (Coil)
 1  2  3  5 9 -21.296 1.522 1
 1  2  3  5 9 179.695 4.474 2
 1  2  3  5 9 -10.441 0.750 4
 1  2  3  5 9 -32.261 0.217 5
 5  6  7 10 9 -98.395 4.434 1
 5  6  7 10 9 123.595 4.764 2
 5  6  7 10 9 9.335 0.764 4
 5  6  7 10 9 -67.210 0.430 5
10 11 12 15 9 -98.395 4.434 1
10 11 12 15 9 123.595 4.764 2
10 11 12 15 9 9.335 0.764 4
10 11 12 15 9 -67.210 0.430 5
15 16 17 22 9 -98.395 4.434 1
15 16 17 22 9 123.595 4.764 2
15 16 17 22 9 9.335 0.764 4
15 16 17 22 9 -67.210 0.430 5
22 23 24 27 9 -98.395 4.434 1
22 23 24 27 9 123.595 4.764 2
22 23 24 27 9 9.335 0.764 4
22 23 24 27 9 -67.210 0.430 5
27 28 29 32 9 -71.065 7.150 1
27 28 29 32 9 81.963 4.271 2
27 28 29 32 9 -2.237 2.231 3
27 28 29 32 9 54.457 0.472 4

; PSI dihedrals (Turn)
32 33 34 37 9 -166.681 5.091 1
32 33 34 37 9 124.823 2.745 2
32 33 34 37 9 -144.051 1.684 3
32 33 34 37 9 17.227 1.383 4
37 38 39 42 9 -166.681 5.091 1
37 38 39 42 9 124.823 2.745 2
37 38 39 42 9 -144.051 1.684 3
37 38 39 42 9 17.227 1.383 4
72 73 74 77 9 -166.681 5.091 1
72 73 74 77 9 124.823 2.745 2
72 73 74 77 9 -144.051 1.684 3
72 73 74 77 9 17.227 1.383 4

; SER
 9  6  8  7 9 10.0 4 2
 9  6  8  7 9 10.0 5 1
 9  6  8  7 9 100.0 .5 1
14 11 13 12 9 10.0 4 2
14 11 13 12 9 10.0 5 1
14 11 13 12 9 100.0 .5 1
31 28 30 29 9 10.0 4 2
31 28 30 29 9 10.0 5 1
31 28 30 29 9 100.0 .5 1

; VAL
66 63 65 64 9 10.0 4 2
66 63 65 64 9 10.0 5 1
66 63 65 64 9 100.0 1 1

[ dihedrals ]
; ARG
58 55 54 56 2 -143.0 75
81 78 77 79 2 -143.0 75

; C-TER
77 78 79 80 2 -30.0 50

; GLN
53 50 49 51 2 -145.0 60
71 68 67 69 2 -145.0 60
76 73 72 74 2 -145.0 60

; GLU
41 38 37 39 2 -145.0 50

; HIS
46 43 42 44 2 -142.5 75

; LEU
26 23 22 24 2 -152.0 75

; N-TER
 1  2  3  4 2 -30.0 50

; PHE
19 16 15 17 2 -145.0 75

; PRO
36 33 32 34 2 -125.0 75

; SER
 9  6  5  7 2 -125.0 90
14 11 10 12 2 -125.0 90
31 28 27 29 2 -125.0 90

; VAL
66 63 62 64 2 -135.0 150

[ virtual_sites3 ]
; C  VS3 +CA  — CA  — O : C 
 3  6  2  4 1 0.450 0.312
 7 11  6  8 1 0.450 0.312
12 16 11 13 1 0.450 0.312
17 23 16 18 1 0.450 0.312
24 28 23 25 1 0.450 0.312
29 33 28 30 1 0.450 0.312
34 38 33 35 1 0.450 0.312
39 43 38 40 1 0.450 0.312
44 50 43 45 1 0.450 0.312
51 55 50 52 1 0.450 0.312
56 63 55 57 1 0.450 0.312
64 68 63 65 1 0.450 0.312
69 73 68 70 1 0.450 0.312
74 78 73 75 1 0.450 0.312

; N  VS3 +CA  — CA  — O : N 
 5  6  2  4 1 0.478 -0.194
10 11  6  8 1 0.478 -0.194
15 16 11 13 1 0.478 -0.194
22 23 16 18 1 0.478 -0.194
27 28 23 25 1 0.478 -0.194
32 33 28 30 1 0.478 -0.194
37 38 33 35 1 0.478 -0.194
42 43 38 40 1 0.478 -0.194
49 50 43 45 1 0.478 -0.194
54 55 50 52 1 0.478 -0.194
62 63 55 57 1 0.478 -0.194
67 68 63 65 1 0.478 -0.194
72 73 68 70 1 0.478 -0.194
77 78 73 75 1 0.478 -0.194

[ bonds ]
11 14 1     0.225  10000.0 ;; distance adjusted from the structure.
14 85 1 	0.375	4400.0 ;; analogue to b_GL_SC1_glyc
85 86 1     0.430   4400.0 ;; analogue to b_SC1_C1_end

[ angles ]
11 14 85 1	139.0	10.0 ;; analogue to a_PO4_GL_C_def
14 85 86 1	180.0	13.5 ;; analogue to a_GL_C1_C1_glyc
