#include "martini_v3.0.0_Up_031c.itp"
#include "molecule_0.itp"
#include "molecule_1.itp"
#include "martini_v3.0.0_phospholipids.itp"
#include "martini_v3.0.0_solvents.itp"
#include "martini_v3.0.0_ions.itp"

[ system ]
; name
molecule_0 in INSANE! Membrane UpperLeaflet>POPC=100.0 LowerLeaflet>POPC=100.0


[ molecules ]
; name  number
molecule_0          1
molecule_1          1
POPC           100
POPC           103
W             3932
NA+             37
CL-             50
